                         Program Version 5.0.4 -  RELEASE  -
|  1> ! SP RHF 6-31G
|  2>
|  3> %output
|  4>    Print[P_Overlap] 1
|  5>    Print[P_OneElec] 1
|  6>    Print[P_Density] 1
|  7>    Print[P_Fockian] 1
|  8>    Print[P_Iter_F]  1
|  9> end
| 10>
| 11> * xyz 0 1
| 12> O    0.0000   -0.7920    0.7920
| 13> H    0.0000    0.0000    0.0000
| 14> H    0.0626   -0.4973   -0.4973
| 15> **                         ****END OF INPUT****

CARTESIAN COORDINATES (ANGSTROEM)
---------------------------------
  O      0.000000   -0.792000    0.792000
  H      0.000000    0.000000    0.000000
  H      0.062600   -0.497300   -0.497300

 Total Charge           Charge          ....    0
 Multiplicity           Mult            ....    1
 Number of Electrons    NEL             ....   10
 Basis Dimension        Dim             ....   13

ORBITAL ENERGIES
----------------

  NO   OCC          E(Eh)            E(eV)
   0   2.0000     -20.630204      -561.3764
   1   2.0000      -1.311427       -35.6857
   2   2.0000      -0.702879       -19.1263
   3   2.0000      -0.527217       -14.3463
   4   2.0000      -0.524161       -14.2631
   5   0.0000       0.105514         2.8712
   6   0.0000       0.273153         7.4329
   7   0.0000       0.684665        18.6307
   8   0.0000       1.141343        31.0575
   9   0.0000       1.232557        33.5396

-------
DENSITY
-------
                  0          1          2          3          4          5
      0       2.093847  -0.211257  -0.027275   0.000692   0.016275  -0.296011
      1      -0.211257   0.579011   0.064893  -0.002237  -0.029345   0.653487
      2      -0.027275   0.064893   0.285459   0.022295   0.234575   0.115798
      3       0.000692  -0.002237   0.022295   0.873130  -0.003279  -0.000933
      4       0.016275  -0.029345   0.234575  -0.003279   0.691877  -0.100944
      5      -0.296011   0.653487   0.115798  -0.000933  -0.100944   0.767916
      6      -0.006550   0.025991   0.196812   0.016473   0.187585   0.053901
      7       0.000266  -0.001244   0.017332   0.645107  -0.000522  -0.000363
      8       0.002317  -0.006222   0.173938   0.000337   0.466891  -0.048110
      9       0.001591  -0.009395  -0.135725  -0.003976   0.198893  -0.098222
     10       0.035765  -0.074169   0.031933  -0.017881   0.252128  -0.123397
     11       0.016692  -0.044078  -0.215473   0.013966  -0.006447  -0.118777
     12       0.025906  -0.065115  -0.210918   0.025156  -0.188802  -0.101098
                  6          7          8          9         10         11
      0      -0.006550   0.000266   0.002317   0.001591   0.035765   0.016692
      1       0.025991  -0.001244  -0.006222  -0.009395  -0.074169  -0.044078
      2       0.196812   0.017332   0.173938  -0.135725   0.031933  -0.215473
      3       0.016473   0.645107   0.000337  -0.003976  -0.017881   0.013966
      4       0.187585  -0.000522   0.466891   0.198893   0.252128  -0.006447
      5       0.053901  -0.000363  -0.048110  -0.098222  -0.123397  -0.118777
      6       0.137431   0.012814   0.136491  -0.079386   0.034862  -0.140520
      7       0.012814   0.476639   0.001554  -0.002549  -0.012607   0.010103
      8       0.136491   0.001554   0.316374   0.119867   0.165420  -0.020027
      9      -0.079386  -0.002549   0.119867   0.267820   0.119174   0.213937
     10       0.034862  -0.012607   0.165420   0.119174   0.109488   0.049936
     11      -0.140520   0.010103  -0.020027   0.213937   0.049936   0.224713
     12      -0.145614   0.017899  -0.138806   0.089047  -0.029558   0.154538
                 12
      0       0.025906
      1      -0.065115
      2      -0.210918
      3       0.025156
      4      -0.188802
      5      -0.101098
      6      -0.145614
      7       0.017899
      8      -0.138806
      9       0.089047
     10      -0.029558
     11       0.154538
     12       0.158921

MULLIKEN ATOMIC CHARGES
-----------------------
   0 O :   -0.455927
   1 H :    0.255104
   2 H :    0.200823
Sum of atomic charges:   -0.0000000

LOEWDIN ATOMIC CHARGES
----------------------
   0 O :   -0.462081
   1 H :    0.227474
   2 H :    0.234607

  Mayer bond orders larger than 0.100000
B(  0-O ,  1-H ) :   0.4905 B(  0-O ,  2-H ) :   0.5508 B(  1-H ,  2-H ) :   0.3919

FINAL SINGLE POINT ENERGY       -75.805772701478

DIPOLE MOMENT
-------------
                                X             Y             Z
Electronic contribution:     -0.02884      -0.40873       0.86695
Nuclear contribution   :      0.05211       0.90453      -1.73239
                        -----------------------------------------
Total Dipole Moment    :      0.02327       0.49580      -0.86544
                        -----------------------------------------
Magnitude (a.u.)       :      0.99767
Magnitude (Debye)      :      2.53587

Rotational constants in cm-1:    74.504280     6.758625     6.196511
Rotational constants in MHz : 2233582.124158 202618.492630 185766.738602

                             ****ORCA TERMINATED NORMALLY****
TOTAL RUN TIME: 0 days 0 hours 0 minutes 0 seconds 334 msec
