                         Program Version 5.0.4 -  RELEASE  -
|  1> ! RHF 6-31G
|  2> ! PrintBasis
|  3>
|  4> %output
|  5>    Print[P_Overlap]     1
|  6>    Print[P_OneElec]     1
|  7>    Print[P_Density]     1
|  8>    Print[P_Fockian]     1
|  9>    Print[P_Iter_F]      1
| 10> end
| 11>
| 12> * xyz 0 1
| 13> H    0.0000    0.0000    0.0000
| 14> H    0.0626   -0.4973   -0.4973
| 15> **                         ****END OF INPUT****

CARTESIAN COORDINATES (ANGSTROEM)
---------------------------------
  H      0.000000    0.000000    0.000000
  H      0.062600   -0.497300   -0.497300

 Total Charge           Charge          ....    0
 Multiplicity           Mult            ....    1
 Number of Electrons    NEL             ....    2
 Basis Dimension        Dim             ....    4

ORBITAL ENERGIES
----------------

  NO   OCC          E(Eh)            E(eV)
   0   2.0000      -0.606333       -16.4992
   1   0.0000       0.247479         6.7342
   2   0.0000       0.758539        20.6409
   3   0.0000       1.451443        39.4958
-------
DENSITY
-------
                  0          1          2          3
      0       0.221083   0.175036   0.221083   0.175036
      1       0.175036   0.138580   0.175036   0.138580
      2       0.221083   0.175036   0.221083   0.175036
      3       0.175036   0.138580   0.175036   0.138580

MULLIKEN ATOMIC CHARGES
-----------------------
   0 H :   -0.000000
   1 H :    0.000000
Sum of atomic charges:    0.0000000

LOEWDIN ATOMIC CHARGES
----------------------
   0 H :    0.000000
   1 H :    0.000000

  Mayer bond orders larger than 0.100000
B(  0-H ,  1-H ) :   1.0000

FINAL SINGLE POINT ENERGY        -1.126385747541

DIPOLE MOMENT
-------------
                                X             Y             Z
Electronic contribution:      0.00000      -0.00000      -0.00000
Nuclear contribution   :      0.00000       0.00000       0.00000
                        -----------------------------------------
Total Dipole Moment    :      0.00000      -0.00000      -0.00000
                        -----------------------------------------
Magnitude (a.u.)       :      0.00000
Magnitude (Debye)      :      0.00000

Rotational constants in cm-1:     0.000000    67.092219    67.092219
Rotational constants in MHz :     0.000000 2011374.129710 2011374.129710

                             ****ORCA TERMINATED NORMALLY****
TOTAL RUN TIME: 0 days 0 hours 0 minutes 0 seconds 285 msec
